100
Coordinates from ORCA-job surface_scan Relaxed Surface Scan Step 1
  C      -3.916441     -0.712797     -0.756323
  C      -3.358681      0.053279      0.461320
  C      -2.907631     -0.645270      1.526721
  C      -3.004298     -2.140372      1.666508
  C      -3.966410     -2.754256      0.649004
  H      -3.342877     -2.381775      2.680891
  H      -2.006324     -2.588813      1.552783
  C      -3.636412     -2.210549     -0.733900
  H      -4.991589     -2.472530      0.893681
  H      -3.888337     -3.842338      0.672158
  H      -4.234434     -2.704345     -1.506127
  H      -2.579769     -2.388390     -0.952765
  H      -3.484197     -0.262606     -1.651374
  H      -4.991753     -0.527344     -0.800589
  C      -2.326346      0.084972      2.714238
  H      -2.091678      1.110072      2.437253
  H      -1.415533     -0.418082      3.058521
  H      -3.018449      0.119388      3.563205
  O      -3.391142      1.252475      0.431722
  S      -3.268599      2.169690     -1.146161
  O      -3.700240      3.161616     -2.949023
  O      -1.838515      2.381753     -1.317334
  C      -3.819115      3.644810     -0.195944
  H      -4.882217      3.522489     -0.019045
  H      -3.634079      4.538708     -0.777008
  H      -3.262656      3.658844      0.733077
  C      -7.016387      2.128519     -5.092530
  B      -6.447936      2.587584     -2.437306
  H      -6.281314      2.149309     -1.342627
  B      -5.475534      2.841961     -5.139311
  H      -4.711313      2.513813     -5.988842
  B      -8.267710      3.168802     -4.571909
  H      -9.349033      3.049211     -5.058470
  B      -5.913806      1.685721     -3.869984
  H      -5.446196      0.600395     -3.889890
  B      -6.924179      3.763793     -5.563411
  H      -7.116906      4.027589     -6.700007
  B      -5.706375      4.476247     -4.494016
  H      -4.998463      5.374360     -4.811585
  B      -7.909289      3.511824     -2.882440
  H      -8.769364      3.734938     -2.093937
  B      -7.456566      4.685808     -4.150459
  H      -7.991434      5.741757     -4.256018
  B      -7.639568      1.892134     -3.530660
  H      -8.275855      0.915063     -3.325612
  B      -5.103401      3.190044     -3.446798
  B      -6.327776      4.324390     -2.826827
  H      -6.060353      5.139182     -2.001925
  H      -3.193873      3.948484     -3.149100
  H      -7.264331      1.388959     -5.846806
  Cl     -1.260348      8.625343     -6.843812
  C      -1.598927      8.761498     -5.110993
  Cl     -1.286054     10.409081     -4.533719
  H      -0.939647      8.075262     -4.581089
  H      -2.655191      8.531633     -4.948069
  Cl    -12.062165     -0.295508      3.321544
  C     -12.627463      1.099684      4.262209
  Cl    -14.301621      1.504627      3.860752
  H     -12.006753      1.966628      4.025601
  H     -12.575712      0.842029      5.324151
  Cl    -11.497604     -6.216092     -0.086477
  C     -11.226401     -5.136549     -1.456706
  Cl    -11.071548     -6.080984     -2.960899
  H     -10.291405     -4.595576     -1.291272
  H     -12.090592     -4.484154     -1.554513
  Cl     -2.519439      1.410648    -14.246095
  C      -3.544368      1.663242    -12.826367
  Cl     -5.138552      2.257970    -13.297464
  H      -3.069489      2.417691    -12.190851
  H      -3.660309      0.707857    -12.320420
  Cl    -11.775059     11.258739      0.734026
  C     -12.572681     10.585287     -0.694486
  Cl    -14.306859     10.389252     -0.423772
  H     -12.144064      9.608121     -0.907733
  H     -12.430587     11.279650     -1.518181
  Cl    -11.405641      5.067125    -11.973847
  C     -12.483230      5.015893    -10.568379
  Cl    -13.210489      6.598736    -10.260996
  H     -11.891665      4.728784     -9.699326
  H     -13.282871      4.307265    -10.785811
  Cl      2.785880      4.529507     -1.416058
  C       1.240788      4.085735     -2.178805
  Cl      0.799105      5.262684     -3.425881
  H       0.464253      4.083829     -1.410712
  H       1.336035      3.110867     -2.644749
  Cl     -8.977305     -4.187182    -11.272269
  C      -8.602970     -3.123099     -9.891261
  Cl     -9.268011     -3.775559     -8.382581
  H      -9.007764     -2.128086    -10.076008
  H      -7.516116     -3.099627     -9.790253
  Cl     -1.346956     -8.512309      4.903474
  C      -0.264267     -8.853791      3.540178
  Cl     -0.957779    -10.070156      2.464356
  H       0.672294     -9.244268      3.940865
  H      -0.111238     -7.931519      2.974711
  Cl    -10.629536      4.046537      3.362586
  C      -9.232291      3.007460      3.005533
  Cl     -9.056943      1.734274      4.225894
  H      -8.340453      3.637459      3.026949
  H      -9.393485      2.547165      2.027857
>
100
Coordinates from ORCA-job surface_scan Relaxed Surface Scan Step 2
  C      -3.014472     -0.997007     -1.074289
  C      -3.273827     -0.174103      0.177728
  C      -3.702428     -0.761523      1.307954
  C      -3.982786     -2.234966      1.428333
  C      -4.057662     -2.928729      0.071972
  H      -4.933393     -2.362399      1.956488
  H      -3.201162     -2.708551      2.035124
  C      -2.882101     -2.486243     -0.782410
  H      -4.989126     -2.659329     -0.428633
  H      -4.051789     -4.012663      0.216398
  H      -2.853649     -3.046325     -1.720181
  H      -1.949945     -2.679394     -0.247152
  H      -2.101758     -0.613645     -1.537651
  H      -3.832372     -0.829628     -1.782101
  C      -3.880909      0.021364      2.584764
  H      -3.621393      1.064731      2.429602
  H      -3.230553     -0.377332      3.366409
  H      -4.911366     -0.041508      2.941345
  O      -3.080744      1.066092      0.106717
  S      -2.913141      1.839631     -1.492129
  O      -3.400183      2.819387     -3.339389
  O      -1.467559      1.900626     -1.690698
  C      -3.286072      3.443956     -0.675187
  H      -4.346298      3.633089     -0.765429
  H      -2.711839      4.221965     -1.159724
  H      -2.994745      3.358356      0.362285
  C      -6.383253      1.035850     -5.492194
  B      -5.808512      1.385778     -2.820008
  H      -5.446557      0.923080     -1.792017
  B      -5.141179      2.188702     -5.504706
  H      -4.375405      2.200447     -6.404634
  B      -7.841573      1.590683     -4.813192
  H      -8.860047      1.206622     -5.279733
  B      -5.127013      0.832095     -4.362898
  H      -4.357238     -0.048350     -4.516599
  B      -6.815375      2.663943     -5.774685
  H      -7.166956      2.979322     -6.860770
  B      -5.808144      3.608737     -4.665940
  H      -5.445215      4.706390     -4.934118
  B      -7.507605      1.854570     -3.101163
  H      -8.351548      1.730519     -2.275651
  B      -7.503949      3.230947     -4.244668
  H      -8.339675      4.075088     -4.221077
  B      -6.802417      0.461456     -3.942597
  H      -7.133290     -0.668090     -3.834221
  B      -4.773305      2.466001     -3.787196
  B      -6.247046      3.100896     -2.999841
  H      -6.199644      3.858564     -2.080845
  H      -3.179988      3.732287     -3.528821
  H      -6.440250      0.339806     -6.321490
  Cl     -5.075963      7.968434     -3.364772
  C      -4.552643      6.530169     -2.483442
  Cl     -4.976942      6.649251     -0.767423
  H      -3.467297      6.459096     -2.561292
  H      -5.056203      5.659303     -2.908585
  Cl    -11.067445      0.981549      0.153955
  C     -10.276123      1.360697      1.681208
  Cl    -11.427856      1.348285      3.021729
  H      -9.845040      2.357368      1.606758
  H      -9.513531      0.604630      1.869609
  Cl    -10.821234     -2.114672     -2.516996
  C     -10.514416     -0.515190     -3.195099
  Cl    -11.603436     -0.194979     -4.545560
  H      -9.489838     -0.475315     -3.561996
  H     -10.693484      0.231506     -2.422066
  Cl     -5.168775      4.626243    -12.644555
  C      -5.759635      3.805678    -11.192411
  Cl     -6.911386      2.522643    -11.601117
  H      -6.267104      4.539631    -10.567779
  H      -4.905665      3.358715    -10.687079
  Cl     -9.878179      4.643386     -0.550053
  C      -9.641157      5.677011     -1.960009
  Cl    -10.875463      6.935920     -2.041965
  H      -9.718711      5.055490     -2.852369
  H      -8.665359      6.151336     -1.877597
  Cl    -11.230819      3.015070     -7.445005
  C     -10.993905      3.267512     -5.711884
  Cl    -11.912340      4.674615     -5.147042
  H      -9.934345      3.452822     -5.530657
  H     -11.355443      2.388878     -5.180446
  Cl      1.431353      3.953789     -3.638123
  C      -0.311885      3.678519     -3.735196
  Cl     -1.181581      5.206750     -3.575751
  H      -0.631981      3.009572     -2.921348
  H      -0.545348      3.269624     -4.717103
  Cl     -9.583444      1.073611     -9.893466
  C      -8.736270      0.594473     -8.415220
  Cl     -9.449822     -0.857327     -7.709528
  H      -8.817337      1.404094     -7.688963
  H      -7.701055      0.381667     -8.676232
  Cl     -5.846462     -3.159966      6.329623
  C      -4.710203     -2.446519      5.174322
  Cl     -3.089874     -3.124655      5.376931
  H      -4.661714     -1.374049      5.356281
  H      -5.054689     -2.673007      4.165701
  Cl     -7.022808      2.773328      1.937584
  C      -6.448368      1.663302      0.686822
  Cl     -7.118526      0.046655      0.911936
  H      -5.363921      1.589113      0.770498
  H      -6.768050      2.026371     -0.290059
>
100
Coordinates from ORCA-job surface_scan Relaxed Surface Scan Step 3
  C      -2.778961     -1.181122     -1.130808
  C      -3.061457     -0.306847      0.070951
  C      -3.486135     -0.808176      1.236564
  C      -3.740875     -2.276997      1.443796
  C      -3.859080     -3.031069      0.125386
  H      -4.658002     -2.395200      2.024987
  H      -2.926327     -2.706156      2.039913
  C      -2.683327     -2.657570     -0.767000
  H      -4.790186     -2.754089     -0.371889
  H      -3.878361     -4.107605      0.310010
  H      -2.680691     -3.261837     -1.676587
  H      -1.751492     -2.847922     -0.230212
  H      -1.848205     -0.834221     -1.586426
  H      -3.577083     -1.033728     -1.865112
  C      -3.709870      0.054106      2.449613
  H      -3.415033      1.080727      2.250166
  H      -3.118972     -0.319458      3.286954
  H      -4.757459      0.032572      2.753270
  O      -2.881504      0.986044     -0.082012
  S      -2.741629      1.637512     -1.709663
  O      -3.215992      2.615479     -3.600159
  O      -1.299942      1.643381     -1.978688
  C      -3.052033      3.288284     -0.974517
  H      -4.120573      3.427315     -0.890799
  H      -2.626434      4.036609     -1.626264
  H      -2.581754      3.310947     -0.000942
  C      -5.998081      0.519347     -5.792805
  B      -5.524312      0.990704     -3.125996
  H      -5.192127      0.594699     -2.060951
  B      -4.816400      1.745515     -5.804356
  H      -4.023441      1.766221     -6.679759
  B      -7.509203      1.016583     -5.179565
  H      -8.494618      0.549385     -5.645329
  B      -4.769997      0.425668     -4.619096
  H      -3.941936     -0.410842     -4.721020
  B      -6.513417      2.104449     -6.149286
  H      -6.837962      2.349841     -7.262027
  B      -5.606777      3.155053     -5.066228
  H      -5.316735      4.257407     -5.379116
  B      -7.221084      1.370412     -3.471813
  H      -8.076174      1.239842     -2.649519
  B      -7.270229      2.693160     -4.659620
  H      -8.158628      3.484399     -4.671505
  B      -6.437652     -0.021626     -4.241014
  H      -6.710224     -1.164176     -4.097380
  B      -4.519364      2.109996     -4.103162
  B      -6.026380      2.685043     -3.388777
  H      -6.037499      3.470835     -2.496002
  H      -2.492713      2.403321     -4.188157
  H      -5.991431     -0.200333     -6.602708
  Cl     -5.025729      7.057326     -4.268053
  C      -4.073561      6.042537     -3.173495
  Cl     -4.467903      6.411904     -1.488336
  H      -3.019016      6.261160     -3.337341
  H      -4.318691      4.997590     -3.373482
  Cl    -11.271518      2.991434     -1.025330
  C      -9.862046      2.249684     -0.258760
  Cl    -10.336309      0.853456      0.706708
  H      -9.397472      2.982723      0.398801
  H      -9.182815      1.912782     -1.044408
  Cl     -9.458507     -3.192037     -2.052687
  C      -9.261384     -1.438162     -1.944196
  Cl    -10.694730     -0.605985     -2.549541
  H      -8.409271     -1.142418     -2.557665
  H      -9.127775     -1.172451     -0.896037
  Cl     -8.498658      6.387178     -6.516854
  C      -9.069602      4.833665     -7.142697
  Cl     -9.120974      4.837566     -8.908892
  H     -10.080780      4.663459     -6.775736
  H      -8.372021      4.059074     -6.822139
  Cl     -7.835672      5.048360     -0.678145
  C      -8.006459      5.714529     -2.301566
  Cl     -9.566115      6.529985     -2.490422
  H      -7.948522      4.890436     -3.013681
  H      -7.214694      6.446933     -2.451125
  Cl    -11.339890      1.896179     -6.189769
  C     -11.019148      2.342170     -4.510312
  Cl    -11.194036      4.087872     -4.282771
  H      -9.990294      2.063039     -4.277393
  H     -11.743241      1.835949     -3.874238
  Cl      0.010763      5.337363     -1.340759
  C       0.189061      4.111564     -2.604310
  Cl     -0.541778      4.671571     -4.115337
  H      -0.324875      3.188647     -2.290175
  H       1.252369      3.959787     -2.781464
  Cl    -10.704879      0.543052     -9.362829
  C      -9.110014      1.107888     -8.848616
  Cl     -7.824737      0.181093     -9.626494
  H      -9.026234      0.973214     -7.770203
  H      -9.009084      2.153035     -9.140364
  Cl     -9.204156      0.111575      4.999054
  C      -8.163432     -0.041341      3.577332
  Cl     -7.190375     -1.510543      3.670385
  H      -7.499221      0.820593      3.538177
  H      -8.796705     -0.105014      2.696419
  Cl     -6.752074      2.649320      1.649058
  C      -6.166061      1.611286      0.342300
  Cl     -6.926726      0.024210      0.406517
  H      -5.090299      1.476734      0.461607
  H      -6.425128      2.075769     -0.610229
>
100
Coordinates from ORCA-job surface_scan Relaxed Surface Scan Step 4
  C      -2.659369     -1.044267     -0.842917
  C      -3.071991     -0.188276      0.323382
  C      -3.442146     -0.677884      1.508141
  C      -3.511889     -2.158145      1.768992
  C      -3.522382     -2.967499      0.477747
  H      -4.414559     -2.367393      2.349485
  H      -2.655837     -2.457917      2.385008
  C      -2.393044     -2.485879     -0.423822
  H      -4.476556     -2.826335     -0.032817
  H      -3.410442     -4.030763      0.701744
  H      -2.310154     -3.117715     -1.310264
  H      -1.449325     -2.543060      0.123045
  H      -1.768436     -0.601902     -1.293648
  H      -3.452901     -1.018132     -1.596746
  C      -3.802935      0.196632      2.675507
  H      -3.623115      1.241916      2.440619
  H      -3.200948     -0.073537      3.543722
  H      -4.850317      0.064534      2.949029
  O      -3.064972      1.167457      0.116607
  S      -2.961926      1.762225     -1.520238
  O      -3.432071      2.677143     -3.462873
  O      -1.522166      1.784581     -1.806060
  C      -3.318080      3.438364     -0.859325
  H      -4.365061      3.650461     -1.028362
  H      -2.699419      4.150749     -1.386873
  H      -3.087314      3.443660      0.197260
  C      -5.978363      0.650874     -5.966969
  B      -5.552636      0.739073     -3.247078
  H      -5.170926      0.220525     -2.252594
  B      -4.955368      1.995642     -5.769312
  H      -4.171266      2.249809     -6.615792
  B      -7.534114      0.858559     -5.306771
  H      -8.450612      0.354248     -5.860445
  B      -4.744195      0.516782     -4.804314
  H      -3.820617     -0.186492     -5.026730
  B      -6.684337      2.198340     -6.076883
  H      -7.048444      2.579885     -7.136497
  B      -5.899826      3.159348     -4.822055
  H      -5.743988      4.328878     -4.932863
  B      -7.283380      0.967010     -3.559198
  H      -8.110014      0.607214     -2.784524
  B      -7.497911      2.446296     -4.523338
  H      -8.472339      3.121831     -4.421079
  B      -6.342857     -0.180635     -4.525955
  H      -6.479088     -1.355325     -4.570595
  B      -4.689125      2.106770     -4.025489
  B      -6.250877      2.384153     -3.251636
  H      -6.355017      3.021008     -2.251322
  H      -2.676193      2.440221     -4.000345
  H      -5.888789      0.073838     -6.879507
  Cl     -3.701165      6.524586     -5.341439
  C      -3.328348      5.858099     -3.746847
  Cl     -4.314965      6.627818     -2.497831
  H      -2.283291      6.069908     -3.524778
  H      -3.552771      4.788038     -3.747779
  Cl    -11.262796      3.380623     -1.452133
  C      -9.658429      2.753427     -1.042719
  Cl     -9.788796      1.142848     -0.335320
  H      -9.204728      3.415859     -0.305932
  H      -9.065555      2.680672     -1.955996
  Cl     -8.641997     -3.731873     -1.525926
  C      -8.734262     -2.031378     -1.999597
  Cl    -10.353596     -1.620075     -2.570878
  H      -8.027661     -1.852453     -2.809696
  H      -8.510152     -1.420994     -1.125361
  Cl     -7.690594      7.015153     -5.822043
  C      -8.532445      5.535110     -6.294452
  Cl     -9.086167      5.631940     -7.969807
  H      -9.405377      5.414591     -5.653836
  H      -7.837388      4.698639     -6.205313
  Cl     -7.285337      5.488600     -0.815928
  C      -7.595726      5.830038     -2.521789
  Cl     -9.332088      5.839725     -2.850361
  H      -7.135776      5.039533     -3.117704
  H      -7.194841      6.815688     -2.752065
  Cl    -11.659307      0.122957     -5.446455
  C     -11.143602      1.403741     -4.343549
  Cl    -11.398500      2.997607     -5.065295
  H     -10.076013      1.282016     -4.153760
  H     -11.743120      1.338357     -3.436872
  Cl      0.004242      5.365896     -2.311842
  C       0.146046      3.794769     -3.112220
  Cl     -0.489536      3.874538     -4.763259
  H      -0.438733      3.050959     -2.547323
  H       1.203486      3.542315     -3.168227
  Cl    -11.719168      1.830096     -8.635721
  C     -10.006644      2.014706     -8.240716
  Cl     -8.986851      1.317173     -9.501439
  H      -9.802224      1.489658     -7.308222
  H      -9.783856      3.078695     -8.167997
  Cl    -10.540559     -0.051044      4.001784
  C      -9.069279     -0.133751      3.025133
  Cl     -7.726059     -0.796191      3.958829
  H      -8.805017      0.874762      2.709313
  H      -9.254244     -0.788166      2.174822
  Cl     -7.062291      2.373778      1.437849
  C      -6.272936      1.261893      0.314556
  Cl     -6.755099     -0.404294      0.612175
  H      -5.195999      1.337404      0.465476
  H      -6.571029      1.522754     -0.700711
>
100
Coordinates from ORCA-job surface_scan Relaxed Surface Scan Step 5
  C      -2.667439     -1.035903     -0.840729
  C      -3.082587     -0.205814      0.335020
  C      -3.446822     -0.688397      1.520073
  C      -3.510508     -2.170756      1.771198
  C      -3.522968     -2.969925      0.473048
  H      -4.410133     -2.386886      2.353414
  H      -2.650625     -2.470042      2.381413
  C      -2.398524     -2.480659     -0.431274
  H      -4.479672     -2.827330     -0.032162
  H      -3.407763     -4.034385      0.689044
  H      -2.319787     -3.106417     -1.322120
  H      -1.451985     -2.540687      0.110297
  H      -1.777348     -0.586390     -1.285404
  H      -3.459782     -1.004246     -1.595453
  C      -3.809266      0.181590      2.688268
  H      -3.625272      1.226720      2.457484
  H      -3.212032     -0.095494      3.557246
  H      -4.858328      0.051279      2.955123
  O      -3.087471      1.207960      0.129993
  S      -2.974685      1.779423     -1.500398
  O      -3.435521      2.683768     -3.462999
  O      -1.533618      1.790861     -1.786737
  C      -3.322124      3.465041     -0.857656
  H      -4.367209      3.682651     -1.031894
  H      -2.696494      4.167261     -1.390609
  H      -3.094872      3.479461      0.199780
  C      -5.979461      0.652892     -5.965708
  B      -5.553766      0.744512     -3.246153
  H      -5.172175      0.225591     -2.251777
  B      -4.957630      1.998565     -5.769869
  H      -4.173982      2.252284     -6.616844
  B      -7.535296      0.859163     -5.305770
  H      -8.451974      0.353801     -5.858445
  B      -4.745270      0.521115     -4.802579
  H      -3.821359     -0.181879     -5.024918
  B      -6.686788      2.199470     -6.076858
  H      -7.050958      2.579485     -7.137126
  B      -5.902728      3.162367     -4.823608
  H      -5.750308      4.332346     -4.936802
  B      -7.285021      0.970067     -3.558048
  H      -8.111455      0.610582     -2.782836
  B      -7.500331      2.448127     -4.523589
  H      -8.475261      3.123199     -4.422497
  B      -6.343640     -0.177575     -4.523625
  H      -6.478935     -1.352541     -4.566133
  B      -4.689521      2.112417     -4.025187
  B      -6.252879      2.388367     -3.252551
  H      -6.358144      3.026400     -2.252824
  H      -2.675964      2.435784     -3.989736
  H      -5.889270      0.074827     -6.877570
  Cl     -3.680681      6.504633     -5.369066
  C      -3.317063      5.848804     -3.768041
  Cl     -4.306811      6.630590     -2.529307
  H      -2.272263      6.058806     -3.543173
  H      -3.544607      4.779166     -3.762106
  Cl    -11.259682      3.388573     -1.453593
  C      -9.656829      2.758984     -1.043230
  Cl     -9.790344      1.150604     -0.330877
  H      -9.200336      3.422373     -0.309054
  H      -9.064273      2.681441     -1.956394
  Cl     -8.629886     -3.729091     -1.513507
  C      -8.727647     -2.030559     -1.992902
  Cl    -10.348438     -1.625700     -2.564966
  H      -8.021582     -1.852547     -2.803630
  H      -8.505084     -1.417179     -1.120424
  Cl     -7.696743      7.018697     -5.828215
  C      -8.538335      5.537959     -6.298792
  Cl     -9.092493      5.632862     -7.974136
  H      -9.410909      5.417726     -5.657670
  H      -7.843189      4.701754     -6.208783
  Cl     -7.278637      5.496490     -0.821941
  C      -7.591974      5.834047     -2.527673
  Cl     -9.329088      5.845708     -2.852529
  H      -7.134897      5.041687     -3.123326
  H      -7.190309      6.818489     -2.761863
  Cl    -11.659251      0.120793     -5.439448
  C     -11.143549      1.403956     -4.339557
  Cl    -11.401191      2.996229     -5.063840
  H     -10.075585      1.284226     -4.150482
  H     -11.742053      1.339496     -3.432109
  Cl      0.010795      5.356896     -2.313067
  C       0.148901      3.779128     -3.100522
  Cl     -0.474855      3.851539     -4.756711
  H      -0.444367      3.042389     -2.534439
  H       1.205168      3.520100     -3.147488
  Cl    -11.721884      1.828044     -8.626473
  C     -10.008723      2.013981     -8.234952
  Cl     -8.990845      1.320256     -9.499290
  H      -9.801586      1.487375     -7.303943
  H      -9.787056      3.078077     -8.160245
  Cl    -10.534748     -0.105977      3.982544
  C      -9.058078     -0.158679      3.011933
  Cl     -7.694158     -0.742962      3.966691
  H      -8.831003      0.849905      2.668515
  H      -9.214157     -0.843290      2.179886
  Cl     -7.063617      2.369980      1.438645
  C      -6.270421      1.265509      0.310969
  Cl     -6.745182     -0.403148      0.605165
  H      -5.192959      1.344322      0.459965
  H      -6.570723      1.527114     -0.703613
>
100
Coordinates from ORCA-job surface_scan Relaxed Surface Scan Step 6
  C      -2.674868     -1.029805     -0.840809
  C      -3.093707     -0.223307      0.342708
  C      -3.460119     -0.697820      1.526504
  C      -3.528821     -2.182675      1.765850
  C      -3.539347     -2.970828      0.460636
  H      -4.430858     -2.400647      2.343244
  H      -2.671214     -2.486985      2.376240
  C      -2.412112     -2.479293     -0.439559
  H      -4.494882     -2.822001     -0.044924
  H      -3.427431     -4.037123      0.668937
  H      -2.335220     -3.099902     -1.333937
  H      -1.466184     -2.545967      0.102250
  H      -1.780773     -0.578289     -1.274669
  H      -3.461729     -0.989601     -1.600412
  C      -3.821356      0.168345      2.695941
  H      -3.630286      1.212542      2.467479
  H      -3.228879     -0.116140      3.565503
  H      -4.871889      0.041864      2.957832
  O      -3.098225      1.248882      0.142738
  S      -2.979912      1.797277     -1.483266
  O      -3.435965      2.689684     -3.463373
  O      -1.538074      1.797800     -1.772036
  C      -3.319626      3.492211     -0.859048
  H      -4.364568      3.710939     -1.033171
  H      -2.693005      4.187028     -1.400352
  H      -3.090523      3.517235      0.198052
  C      -5.976979      0.652663     -5.963919
  B      -5.550767      0.747335     -3.244514
  H      -5.168578      0.229838     -2.249700
  B      -4.956339      1.999520     -5.769719
  H      -4.173324      2.253069     -6.617398
  B      -7.532884      0.858279     -5.303627
  H      -8.449347      0.351369     -5.855481
  B      -4.742178      0.523452     -4.800920
  H      -3.817726     -0.179168     -5.022763
  B      -6.685943      2.198374     -6.076409
  H      -7.050923      2.577090     -7.136963
  B      -5.902203      3.163234     -4.824412
  H      -5.750795      4.333210     -4.939052
  B      -7.281966      0.971136     -3.556281
  H      -8.107839      0.611447     -2.780343
  B      -7.498941      2.447998     -4.523078
  H      -8.474423      3.122462     -4.422139
  B      -6.339864     -0.176573     -4.520923
  H      -6.473973     -1.351897     -4.562239
  B      -4.687899      2.115737     -4.024938
  B      -6.251009      2.390572     -3.252399
  H      -6.356333      3.029419     -2.253258
  H      -2.675433      2.435862     -3.985575
  H      -5.886483      0.073741     -6.875245
  Cl     -3.675917      6.497073     -5.388869
  C      -3.314633      5.849156     -3.784311
  Cl     -4.304651      6.638825     -2.550762
  H      -2.270061      6.059818     -3.558798
  H      -3.542952      4.779574     -3.773246
  Cl    -11.255994      3.388411     -1.451062
  C      -9.652625      2.759539     -1.041464
  Cl     -9.785193      1.151736     -0.327960
  H      -9.196029      3.423666     -0.307994
  H      -9.060700      2.681681     -1.955001
  Cl     -8.618522     -3.725876     -1.506070
  C      -8.719101     -2.028244     -1.987794
  Cl    -10.341047     -1.626463     -2.558805
  H      -8.013958     -1.850420     -2.799425
  H      -8.496415     -1.413272     -1.116444
  Cl     -7.700013      7.017105     -5.832202
  C      -8.540784      5.535122     -6.300348
  Cl     -9.096542      5.627792     -7.975280
  H      -9.412702      5.414923     -5.658327
  H      -7.844789      4.699640     -6.210061
  Cl     -7.273587      5.501513     -0.825886
  C      -7.589213      5.836256     -2.531617
  Cl     -9.326772      5.847406     -2.853934
  H      -7.132843      5.042819     -3.126419
  H      -7.187687      6.820191     -2.768192
  Cl    -11.656171      0.115503     -5.433044
  C     -11.140939      1.400589     -4.335154
  Cl    -11.401436      2.991653     -5.060993
  H     -10.072622      1.282373     -4.147033
  H     -11.738440      1.336295     -3.427029
  Cl      0.007596      5.357352     -2.318540
  C       0.147212      3.774273     -3.094890
  Cl     -0.467245      3.837030     -4.754757
  H      -0.449096      3.041311     -2.526369
  H       1.203504      3.513860     -3.134783
  Cl    -11.723256      1.820472     -8.620158
  C     -10.009550      2.008195     -8.231872
  Cl     -8.993452      1.314542     -9.497643
  H      -9.800302      1.482364     -7.300889
  H      -9.788745      3.072551     -8.158281
  Cl    -10.517264     -0.119948      3.983438
  C      -9.040895     -0.170375      3.012168
  Cl     -7.681502     -0.777232      3.958744
  H      -8.806461      0.841123      2.682300
  H      -9.201514     -0.842578      2.170911
  Cl     -7.060952      2.369896      1.441148
  C      -6.264385      1.269716      0.311318
  Cl     -6.734445     -0.400372      0.602905
  H      -5.186632      1.351753      0.460109
  H      -6.566734      1.531708     -0.702554
>
100
Coordinates from ORCA-job surface_scan Relaxed Surface Scan Step 7
  C      -2.682349     -1.025431     -0.840733
  C      -3.103716     -0.241878      0.350598
  C      -3.472466     -0.709020      1.532910
  C      -3.545341     -2.196294      1.760738
  C      -3.555110     -2.973385      0.448518
  H      -4.449127     -2.416184      2.334286
  H      -2.689306     -2.505676      2.370300
  C      -2.425738     -2.479694     -0.448468
  H      -4.509839     -2.818171     -0.056561
  H      -3.446360     -4.041469      0.648885
  H      -2.351742     -3.094523     -1.346864
  H      -1.479999     -2.553646      0.092648
  H      -1.784987     -0.571581     -1.264800
  H      -3.464917     -0.975843     -1.603890
  C      -3.832471      0.153423      2.703643
  H      -3.635786      1.196946      2.477714
  H      -3.243609     -0.137553      3.573303
  H      -4.884168      0.030007      2.961395
  O      -3.107670      1.288569      0.155338
  S      -2.985027      1.815330     -1.465364
  O      -3.436890      2.696490     -3.463605
  O      -1.542564      1.805920     -1.757110
  C      -3.317643      3.519208     -0.859524
  H      -4.362210      3.739160     -1.034791
  H      -2.689301      4.205693     -1.409343
  H      -3.087477      3.555287      0.197255
  C      -5.974902      0.653485     -5.962081